30
name: (EtCp)Co(MeCp); charge: 0; multiplicity: 2; method: OMol25's eSEN Conserving Small; energy: -1887.7005270
Co   -0.04056011  -0.00235882  -0.01003153
C     0.77326728   0.98248343   1.66158418
C     1.87634504   1.99620819   1.62871680
C    -0.61925749   1.24964068   1.57629346
H    -1.06197515   2.22375974   1.42940856
C    -1.31924796   0.01714168   1.65184760
H    -2.38827128  -0.11136968   1.58313241
C    -0.36112936  -1.01910672   1.80251792
H    -0.57354953  -2.07484457   1.86470149
C     0.92531170  -0.42314278   1.80939684
H     1.86697467  -0.94694315   1.87725830
C     1.24303242  -0.17721320  -1.65864343
H     2.31789848  -0.21957091  -1.57866079
C     0.46062216   0.99895788  -1.79086254
H     0.83489835   2.01170987  -1.81591122
C    -0.90926586   0.62802644  -1.82128386
C    -2.07786352   1.55599503  -1.93490554
C    -0.96498665  -0.78909299  -1.72520222
H    -1.86826877  -1.37986627  -1.70013839
C     0.35848012  -1.28668821  -1.62446506
H     0.64220963  -2.32097459  -1.51100528
C     2.24692443   2.49471436   3.02582394
H     1.56831434   2.83746244   1.00312732
H     2.75205823   1.55587186   1.14546298
H     1.38624353   2.95795070   3.50992624
H     2.57324336   1.66574707   3.65538207
H     3.05193902   3.23003796   2.98661933
H    -2.93524095   1.17429508  -1.37948826
H    -2.38233371   1.68408379  -2.97585245
H    -1.83113387   2.54037689  -1.53638782
