8
name: methylammonium; charge: 1; multiplicity: 1; SMILES: [NH3+]C; method: AIMNet2 (ωB97M-D3); energy: -96.2744510;
N    -0.74192777  -0.00205673   0.02532436
C     0.76463782   0.00212151  -0.02610027
H    -1.09227109   0.64072447   0.73580258
H    -1.10462023  -0.92958493   0.24633594
H    -1.14601379   0.27957814  -0.86803048
H     1.08290972  -0.69311227  -0.79228458
H     1.14102353  -0.30257898   0.94197955
H     1.09626190   1.00490884  -0.26302707
