15
name: Pd(Cl)₂(MeCN)₂; charge: 0; multiplicity: 1; method: GFN2-xTB; energy: -31.16702100; SMILES: [Pd](Cl)(Cl)(N#CC)N#CC
Cl    3.11660431   7.35093655   1.82544062
Cl    1.88081396   4.43967614   5.15810466
N     1.24858144   5.12399843   2.35681373
N     3.74980170   6.66256866   4.62830826
C     0.46769563   4.64327825   1.66291711
C     4.51853094   7.13448775   5.34155127
Pd    2.50026978   5.89422667   3.49077834
C     5.47225138   7.72143078   6.22834309
C    -0.50317304   4.04691383   0.80135531
H    -0.95489706   4.81490740   0.17351047
H    -1.27581887   3.56538215   1.40073375
H    -0.02055659   3.30220086   0.16851441
H     6.47274541   7.37530267   5.96910563
H     5.24348464   7.43123132   7.25379836
H     5.43286341   8.80708472   6.13974326
